HEADER
"PSFversion" "1.00"
"simulator" "HSPICE"
"version" "T-2022.06-SP1 linux64"
"rundate" "19:53:24 12/04/2023"
"runtitle" ".lib '/class/ece482/gpdk045_mos' tt                                                                                     "
"runtype" "Summary Information"
"temperature" "25.0000"
"op point time" "0.00"
"op point iterations" "0"
"total cpu time" "0.09"
"node value" "invalid"
"operating point" "invalid"
"ac analysis" "invalid"
"dc sweep" "invalid"
"transient analysis" "invalid"
TRAILER
END
